n -t 0 -s 1 -S DLABEL -l "Bot1" -L ""
n -t 0 -s 0 -S DLABEL -l "Bot2" -L ""
n -t 0 -s 2 -S DLABEL -l "Bot3" -L ""
n -t 0 -s 3 -S DLABEL -l "Bot4" -L ""
n -t 0 -s 7 -S DLABEL -l "Bot5" -L ""
n -t 0 -s 20 -S DLABEL -l "Bot6" -L ""
n -t 0 -s 21 -S DLABEL -l "Bot7" -L ""
n -t 0 -s 23 -S DLABEL -l "Bot8" -L ""
n -t 0 -s 16 -S DLABEL -l "Bot9" -L ""
n -t 0 -s 32 -S DLABEL -l "User1" -L ""
n -t 0 -s 4 -S DLABEL -l "User2" -L ""
n -t 0 -s 17 -S DLABEL -l "User3" -L ""
n -t 0 -s 22 -S DLABEL -l "User4" -L ""
n -t 0 -s 29 -S DLABEL -l "Web Server" -L ""
n -t 0 -s 10 -S DLABEL -l "Decoy1" -L ""
n -t 0 -s 31 -S DLABEL -l "Decoy2" -L ""
n -t 0 -s 30 -S DLABEL -l "Decoy3" -L ""
l -t 0 -s 18 -d 28 -S DLABEL -l "Target Link 3" -L ""
l -t 0 -s 28 -d 18 -S DLABEL -l "Target Link 3" -L ""
l -t 0 -s 9 -d 28 -S DLABEL -l "Target Link 1" -L ""
l -t 0 -s 28 -d 9 -S DLABEL -l "Target Link 1" -L ""
l -t 0 -s 12 -d 11 -S DLABEL -l "Target Link 2" -L ""
l -t 0 -s 11 -d 12 -S DLABEL -l "Target Link 2" -L ""
v -t 0 set_rate -25.228787452803374 1
V -t * -v 1.0a5 -a 0
A -t * -n 1 -p 0 -o 0xffffffff -c 31 -a 1
A -t * -h 1 -m 2147483647 -s 0
c -t * -i 4 -n yellow
c -t * -i 1 -n green
c -t * -i 2 -n red
c -t * -i 3 -n blue
n -t * -a 17 -s 17 -S UP -v circle -c green -i green
n -t * -a 0 -s 0 -S UP -v circle -c red -i red
n -t * -a 18 -s 18 -S UP -v hexagon -c black -i black
n -t * -a 1 -s 1 -S UP -v circle -c red -i red
n -t * -a 20 -s 20 -S UP -v circle -c red -i red
n -t * -a 19 -s 19 -S UP -v hexagon -c black -i black
n -t * -a 2 -s 2 -S UP -v circle -c red -i red
n -t * -a 21 -s 21 -S UP -v circle -c red -i red
n -t * -a 3 -s 3 -S UP -v circle -c red -i red
n -t * -a 22 -s 22 -S UP -v circle -c green -i green
n -t * -a 4 -s 4 -S UP -v circle -c green -i green
n -t * -a 23 -s 23 -S UP -v circle -c red -i red
n -t * -a 5 -s 5 -S UP -v hexagon -c black -i black
n -t * -a 24 -s 24 -S UP -v hexagon -c black -i black
n -t * -a 6 -s 6 -S UP -v hexagon -c black -i black
n -t * -a 25 -s 25 -S UP -v hexagon -c black -i black
n -t * -a 7 -s 7 -S UP -v circle -c red -i red
n -t * -a 26 -s 26 -S UP -v hexagon -c black -i black
n -t * -a 8 -s 8 -S UP -v hexagon -c black -i black
n -t * -a 27 -s 27 -S UP -v hexagon -c black -i black
n -t * -a 9 -s 9 -S UP -v hexagon -c black -i black
n -t * -a 10 -s 10 -S UP -v circle -c yellow -i yellow
n -t * -a 28 -s 28 -S UP -v hexagon -c black -i black
n -t * -a 11 -s 11 -S UP -v hexagon -c black -i black
n -t * -a 30 -s 30 -S UP -v circle -c yellow -i yellow
n -t * -a 29 -s 29 -S UP -v circle -c blue -i blue
n -t * -a 12 -s 12 -S UP -v hexagon -c black -i black
n -t * -a 31 -s 31 -S UP -v circle -c yellow -i yellow
n -t * -a 13 -s 13 -S UP -v hexagon -c black -i black
n -t * -a 32 -s 32 -S UP -v circle -c green -i green
n -t * -a 14 -s 14 -S UP -v hexagon -c black -i black
n -t * -a 15 -s 15 -S UP -v hexagon -c black -i black
n -t * -a 16 -s 16 -S UP -v circle -c red -i red
l -t * -s 1 -d 5 -S UP -r 950000 -D 0.0050000000000000001 -c black -o 
l -t * -s 9 -d 8 -S UP -r 950000 -D 0.0050000000000000001 -c black -o 
l -t * -s 8 -d 7 -S UP -r 950000 -D 0.0050000000000000001 -c black -o 
l -t * -s 6 -d 9 -S UP -r 950000 -D 0.0050000000000000001 -c black -o 
l -t * -s 13 -d 14 -S UP -r 950000 -D 0.0050000000000000001 -c black -o 
l -t * -s 4 -d 14 -S UP -r 950000 -D 0.0050000000000000001 -c black -o 
l -t * -s 14 -d 15 -S UP -r 950000 -D 0.0050000000000000001 -c black -o 
l -t * -s 19 -d 12 -S UP -r 950000 -D 0.0050000000000000001 -c black -o 
l -t * -s 21 -d 25 -S UP -r 2000000 -D 0.0050000000000000001 -c black -o 
l -t * -s 25 -d 18 -S UP -r 950000 -D 0.0050000000000000001 -c black -o 
l -t * -s 24 -d 18 -S UP -r 950000 -D 0.0050000000000000001 -c black -o 
l -t * -s 10 -d 11 -S UP -r 950000 -D 0.0050000000000000001 -c black -o 
l -t * -s 28 -d 29 -S UP -r 950000 -D 0.0050000000000000001 -c black -o 
l -t * -s 0 -d 6 -S UP -r 950000 -D 0.0050000000000000001 -c black -o 
l -t * -s 2 -d 13 -S UP -r 950000 -D 0.0050000000000000001 -c black -o 
l -t * -s 3 -d 14 -S UP -r 950000 -D 0.0050000000000000001 -c black -o 
l -t * -s 16 -d 19 -S UP -r 950000 -D 0.0050000000000000001 -c black -o 
l -t * -s 20 -d 24 -S UP -r 950000 -D 0.0050000000000000001 -c black -o 
l -t * -s 17 -d 19 -S UP -r 950000 -D 0.0050000000000000001 -c black -o 
l -t * -s 32 -d 5 -S UP -r 950000 -D 0.0050000000000000001 -c black -o 
l -t * -s 22 -d 25 -S UP -r 950000 -D 0.0050000000000000001 -c black -o 
l -t * -s 18 -d 28 -S UP -r 950000 -D 0.0050000000000000001 -c purple -o 
l -t * -s 28 -d 30 -S UP -r 950000 -D 0.0050000000000000001 -c black -o 
l -t * -s 28 -d 31 -S UP -r 950000 -D 0.0050000000000000001 -c black -o 
l -t * -s 9 -d 28 -S UP -r 950000 -D 0.0050000000000000001 -c purple -o 
l -t * -s 11 -d 28 -S UP -r 950000 -D 0.0050000000000000001 -c black -o 
l -t * -s 9 -d 11 -S UP -r 950000 -D 0.0050000000000000001 -c black -o 
l -t * -s 5 -d 9 -S UP -r 950000 -D 0.0050000000000000001 -c black -o 
l -t * -s 26 -d 27 -S UP -r 950000 -D 0.0050000000000000001 -c black -o 
l -t * -s 23 -d 26 -S UP -r 950000 -D 0.0050000000000000001 -c black -o 
l -t * -s 15 -d 12 -S UP -r 950000 -D 0.0050000000000000001 -c black -o 
l -t * -s 12 -d 11 -S UP -r 950000 -D 0.0050000000000000001 -c purple -o 
l -t * -s 27 -d 18 -S UP -r 950000 -D 0.0050000000000000001 -c black -o 
+ -t 0 -s 1 -d 5 -p cbr -e 210 -c 0 -i 0 -a 0 -x {1.0 30.0 0 ------- null}
- -t 0 -s 1 -d 5 -p cbr -e 210 -c 0 -i 0 -a 0 -x {1.0 30.0 0 ------- null}
h -t 0 -s 1 -d 5 -p cbr -e 210 -c 0 -i 0 -a 0 -x {1.0 30.0 -1 ------- null}
+ -t 0 -s 2 -d 13 -p cbr -e 210 -c 0 -i 1 -a 0 -x {2.0 10.0 0 ------- null}
- -t 0 -s 2 -d 13 -p cbr -e 210 -c 0 -i 1 -a 0 -x {2.0 10.0 0 ------- null}
h -t 0 -s 2 -d 13 -p cbr -e 210 -c 0 -i 1 -a 0 -x {2.0 10.0 -1 ------- null}
+ -t 0 -s 0 -d 6 -p cbr -e 210 -c 1 -i 2 -a 1 -x {0.0 30.0 0 ------- null}
- -t 0 -s 0 -d 6 -p cbr -e 210 -c 1 -i 2 -a 1 -x {0.0 30.0 0 ------- null}
h -t 0 -s 0 -d 6 -p cbr -e 210 -c 1 -i 2 -a 1 -x {0.0 30.0 -1 ------- null}
+ -t 0 -s 3 -d 14 -p cbr -e 210 -c 0 -i 3 -a 0 -x {3.0 10.0 0 ------- null}
- -t 0 -s 3 -d 14 -p cbr -e 210 -c 0 -i 3 -a 0 -x {3.0 10.0 0 ------- null}
h -t 0 -s 3 -d 14 -p cbr -e 210 -c 0 -i 3 -a 0 -x {3.0 10.0 -1 ------- null}
+ -t 0 -s 7 -d 8 -p cbr -e 210 -c 0 -i 4 -a 0 -x {7.0 10.0 0 ------- null}
- -t 0 -s 7 -d 8 -p cbr -e 210 -c 0 -i 4 -a 0 -x {7.0 10.0 0 ------- null}
h -t 0 -s 7 -d 8 -p cbr -e 210 -c 0 -i 4 -a 0 -x {7.0 10.0 -1 ------- null}
+ -t 0 -s 20 -d 24 -p cbr -e 210 -c 0 -i 5 -a 0 -x {20.0 31.0 0 ------- null}
- -t 0 -s 20 -d 24 -p cbr -e 210 -c 0 -i 5 -a 0 -x {20.0 31.0 0 ------- null}
h -t 0 -s 20 -d 24 -p cbr -e 210 -c 0 -i 5 -a 0 -x {20.0 31.0 -1 ------- null}
+ -t 0 -s 21 -d 25 -p cbr -e 210 -c 0 -i 6 -a 0 -x {21.0 31.0 0 ------- null}
- -t 0 -s 21 -d 25 -p cbr -e 210 -c 0 -i 6 -a 0 -x {21.0 31.0 0 ------- null}
h -t 0 -s 21 -d 25 -p cbr -e 210 -c 0 -i 6 -a 0 -x {21.0 31.0 -1 ------- null}
+ -t 0 -s 23 -d 26 -p cbr -e 210 -c 0 -i 7 -a 0 -x {23.0 31.0 0 ------- null}
- -t 0 -s 23 -d 26 -p cbr -e 210 -c 0 -i 7 -a 0 -x {23.0 31.0 0 ------- null}
h -t 0 -s 23 -d 26 -p cbr -e 210 -c 0 -i 7 -a 0 -x {23.0 31.0 -1 ------- null}
+ -t 0 -s 32 -d 5 -p cbr -e 210 -c 0 -i 8 -a 0 -x {32.0 29.0 0 ------- null}
- -t 0 -s 32 -d 5 -p cbr -e 210 -c 0 -i 8 -a 0 -x {32.0 29.0 0 ------- null}
h -t 0 -s 32 -d 5 -p cbr -e 210 -c 0 -i 8 -a 0 -x {32.0 29.0 -1 ------- null}
+ -t 0 -s 4 -d 14 -p cbr -e 210 -c 0 -i 9 -a 0 -x {4.0 29.0 0 ------- null}
- -t 0 -s 4 -d 14 -p cbr -e 210 -c 0 -i 9 -a 0 -x {4.0 29.0 0 ------- null}
h -t 0 -s 4 -d 14 -p cbr -e 210 -c 0 -i 9 -a 0 -x {4.0 29.0 -1 ------- null}
+ -t 0 -s 17 -d 19 -p cbr -e 210 -c 0 -i 10 -a 0 -x {17.0 29.0 0 ------- null}
- -t 0 -s 17 -d 19 -p cbr -e 210 -c 0 -i 10 -a 0 -x {17.0 29.0 0 ------- null}
h -t 0 -s 17 -d 19 -p cbr -e 210 -c 0 -i 10 -a 0 -x {17.0 29.0 -1 ------- null}
+ -t 0 -s 22 -d 25 -p cbr -e 210 -c 0 -i 11 -a 0 -x {22.0 29.0 0 ------- null}
- -t 0 -s 22 -d 25 -p cbr -e 210 -c 0 -i 11 -a 0 -x {22.0 29.0 0 ------- null}
h -t 0 -s 22 -d 25 -p cbr -e 210 -c 0 -i 11 -a 0 -x {22.0 29.0 -1 ------- null}
+ -t 0.00336 -s 1 -d 5 -p cbr -e 210 -c 0 -i 12 -a 0 -x {1.0 30.0 1 ------- null}
- -t 0.00336 -s 1 -d 5 -p cbr -e 210 -c 0 -i 12 -a 0 -x {1.0 30.0 1 ------- null}
h -t 0.00336 -s 1 -d 5 -p cbr -e 210 -c 0 -i 12 -a 0 -x {1.0 30.0 -1 ------- null}
+ -t 0.00336 -s 2 -d 13 -p cbr -e 210 -c 0 -i 13 -a 0 -x {2.0 10.0 1 ------- null}
- -t 0.00336 -s 2 -d 13 -p cbr -e 210 -c 0 -i 13 -a 0 -x {2.0 10.0 1 ------- null}
h -t 0.00336 -s 2 -d 13 -p cbr -e 210 -c 0 -i 13 -a 0 -x {2.0 10.0 -1 ------- null}
+ -t 0.00336 -s 0 -d 6 -p cbr -e 210 -c 1 -i 14 -a 1 -x {0.0 30.0 1 ------- null}
- -t 0.00336 -s 0 -d 6 -p cbr -e 210 -c 1 -i 14 -a 1 -x {0.0 30.0 1 ------- null}
h -t 0.00336 -s 0 -d 6 -p cbr -e 210 -c 1 -i 14 -a 1 -x {0.0 30.0 -1 ------- null}
+ -t 0.00336 -s 3 -d 14 -p cbr -e 210 -c 0 -i 15 -a 0 -x {3.0 10.0 1 ------- null}
- -t 0.00336 -s 3 -d 14 -p cbr -e 210 -c 0 -i 15 -a 0 -x {3.0 10.0 1 ------- null}
h -t 0.00336 -s 3 -d 14 -p cbr -e 210 -c 0 -i 15 -a 0 -x {3.0 10.0 -1 ------- null}
+ -t 0.00336 -s 7 -d 8 -p cbr -e 210 -c 0 -i 16 -a 0 -x {7.0 10.0 1 ------- null}
- -t 0.00336 -s 7 -d 8 -p cbr -e 210 -c 0 -i 16 -a 0 -x {7.0 10.0 1 ------- null}
h -t 0.00336 -s 7 -d 8 -p cbr -e 210 -c 0 -i 16 -a 0 -x {7.0 10.0 -1 ------- null}
+ -t 0.00336 -s 20 -d 24 -p cbr -e 210 -c 0 -i 17 -a 0 -x {20.0 31.0 1 ------- null}
- -t 0.00336 -s 20 -d 24 -p cbr -e 210 -c 0 -i 17 -a 0 -x {20.0 31.0 1 ------- null}
h -t 0.00336 -s 20 -d 24 -p cbr -e 210 -c 0 -i 17 -a 0 -x {20.0 31.0 -1 ------- null}
+ -t 0.00336 -s 21 -d 25 -p cbr -e 210 -c 0 -i 18 -a 0 -x {21.0 31.0 1 ------- null}
- -t 0.00336 -s 21 -d 25 -p cbr -e 210 -c 0 -i 18 -a 0 -x {21.0 31.0 1 ------- null}
h -t 0.00336 -s 21 -d 25 -p cbr -e 210 -c 0 -i 18 -a 0 -x {21.0 31.0 -1 ------- null}
+ -t 0.00336 -s 23 -d 26 -p cbr -e 210 -c 0 -i 19 -a 0 -x {23.0 31.0 1 ------- null}
- -t 0.00336 -s 23 -d 26 -p cbr -e 210 -c 0 -i 19 -a 0 -x {23.0 31.0 1 ------- null}
h -t 0.00336 -s 23 -d 26 -p cbr -e 210 -c 0 -i 19 -a 0 -x {23.0 31.0 -1 ------- null}
r -t 0.00584 -s 21 -d 25 -p cbr -e 210 -c 0 -i 6 -a 0 -x {21.0 31.0 0 ------- null}
+ -t 0.00584 -s 25 -d 18 -p cbr -e 210 -c 0 -i 6 -a 0 -x {21.0 31.0 0 ------- null}
- -t 0.00584 -s 25 -d 18 -p cbr -e 210 -c 0 -i 6 -a 0 -x {21.0 31.0 0 ------- null}
h -t 0.00584 -s 25 -d 18 -p cbr -e 210 -c 0 -i 6 -a 0 -x {21.0 31.0 -1 ------- null}
+ -t 0.00672 -s 1 -d 5 -p cbr -e 210 -c 0 -i 20 -a 0 -x {1.0 30.0 2 ------- null}
- -t 0.00672 -s 1 -d 5 -p cbr -e 210 -c 0 -i 20 -a 0 -x {1.0 30.0 2 ------- null}
h -t 0.00672 -s 1 -d 5 -p cbr -e 210 -c 0 -i 20 -a 0 -x {1.0 30.0 -1 ------- null}
+ -t 0.00672 -s 2 -d 13 -p cbr -e 210 -c 0 -i 21 -a 0 -x {2.0 10.0 2 ------- null}
- -t 0.00672 -s 2 -d 13 -p cbr -e 210 -c 0 -i 21 -a 0 -x {2.0 10.0 2 ------- null}
h -t 0.00672 -s 2 -d 13 -p cbr -e 210 -c 0 -i 21 -a 0 -x {2.0 10.0 -1 ------- null}
+ -t 0.00672 -s 0 -d 6 -p cbr -e 210 -c 1 -i 22 -a 1 -x {0.0 30.0 2 ------- null}
- -t 0.00672 -s 0 -d 6 -p cbr -e 210 -c 1 -i 22 -a 1 -x {0.0 30.0 2 ------- null}
h -t 0.00672 -s 0 -d 6 -p cbr -e 210 -c 1 -i 22 -a 1 -x {0.0 30.0 -1 ------- null}
+ -t 0.00672 -s 3 -d 14 -p cbr -e 210 -c 0 -i 23 -a 0 -x {3.0 10.0 2 ------- null}
- -t 0.00672 -s 3 -d 14 -p cbr -e 210 -c 0 -i 23 -a 0 -x {3.0 10.0 2 ------- null}
h -t 0.00672 -s 3 -d 14 -p cbr -e 210 -c 0 -i 23 -a 0 -x {3.0 10.0 -1 ------- null}
+ -t 0.00672 -s 7 -d 8 -p cbr -e 210 -c 0 -i 24 -a 0 -x {7.0 10.0 2 ------- null}
- -t 0.00672 -s 7 -d 8 -p cbr -e 210 -c 0 -i 24 -a 0 -x {7.0 10.0 2 ------- null}
h -t 0.00672 -s 7 -d 8 -p cbr -e 210 -c 0 -i 24 -a 0 -x {7.0 10.0 -1 ------- null}
+ -t 0.00672 -s 20 -d 24 -p cbr -e 210 -c 0 -i 25 -a 0 -x {20.0 31.0 2 ------- null}
- -t 0.00672 -s 20 -d 24 -p cbr -e 210 -c 0 -i 25 -a 0 -x {20.0 31.0 2 ------- null}
h -t 0.00672 -s 20 -d 24 -p cbr -e 210 -c 0 -i 25 -a 0 -x {20.0 31.0 -1 ------- null}
+ -t 0.00672 -s 21 -d 25 -p cbr -e 210 -c 0 -i 26 -a 0 -x {21.0 31.0 2 ------- null}
- -t 0.00672 -s 21 -d 25 -p cbr -e 210 -c 0 -i 26 -a 0 -x {21.0 31.0 2 ------- null}
h -t 0.00672 -s 21 -d 25 -p cbr -e 210 -c 0 -i 26 -a 0 -x {21.0 31.0 -1 ------- null}
+ -t 0.00672 -s 23 -d 26 -p cbr -e 210 -c 0 -i 27 -a 0 -x {23.0 31.0 2 ------- null}
- -t 0.00672 -s 23 -d 26 -p cbr -e 210 -c 0 -i 27 -a 0 -x {23.0 31.0 2 ------- null}
h -t 0.00672 -s 23 -d 26 -p cbr -e 210 -c 0 -i 27 -a 0 -x {23.0 31.0 -1 ------- null}
r -t 0.00676842105263158 -s 1 -d 5 -p cbr -e 210 -c 0 -i 0 -a 0 -x {1.0 30.0 0 ------- null}
+ -t 0.00676842105263158 -s 5 -d 9 -p cbr -e 210 -c 0 -i 0 -a 0 -x {1.0 30.0 0 ------- null}
- -t 0.00676842105263158 -s 5 -d 9 -p cbr -e 210 -c 0 -i 0 -a 0 -x {1.0 30.0 0 ------- null}
h -t 0.00676842105263158 -s 5 -d 9 -p cbr -e 210 -c 0 -i 0 -a 0 -x {1.0 30.0 -1 ------- null}
r -t 0.00676842105263158 -s 2 -d 13 -p cbr -e 210 -c 0 -i 1 -a 0 -x {2.0 10.0 0 ------- null}
+ -t 0.00676842105263158 -s 13 -d 14 -p cbr -e 210 -c 0 -i 1 -a 0 -x {2.0 10.0 0 ------- null}
- -t 0.00676842105263158 -s 13 -d 14 -p cbr -e 210 -c 0 -i 1 -a 0 -x {2.0 10.0 0 ------- null}
h -t 0.00676842105263158 -s 13 -d 14 -p cbr -e 210 -c 0 -i 1 -a 0 -x {2.0 10.0 -1 ------- null}
r -t 0.00676842105263158 -s 0 -d 6 -p cbr -e 210 -c 1 -i 2 -a 1 -x {0.0 30.0 0 ------- null}
+ -t 0.00676842105263158 -s 6 -d 9 -p cbr -e 210 -c 1 -i 2 -a 1 -x {0.0 30.0 0 ------- null}
- -t 0.00676842105263158 -s 6 -d 9 -p cbr -e 210 -c 1 -i 2 -a 1 -x {0.0 30.0 0 ------- null}
h -t 0.00676842105263158 -s 6 -d 9 -p cbr -e 210 -c 1 -i 2 -a 1 -x {0.0 30.0 -1 ------- null}
r -t 0.00676842105263158 -s 3 -d 14 -p cbr -e 210 -c 0 -i 3 -a 0 -x {3.0 10.0 0 ------- null}
+ -t 0.00676842105263158 -s 14 -d 15 -p cbr -e 210 -c 0 -i 3 -a 0 -x {3.0 10.0 0 ------- null}
- -t 0.00676842105263158 -s 14 -d 15 -p cbr -e 210 -c 0 -i 3 -a 0 -x {3.0 10.0 0 ------- null}
h -t 0.00676842105263158 -s 14 -d 15 -p cbr -e 210 -c 0 -i 3 -a 0 -x {3.0 10.0 -1 ------- null}
r -t 0.00676842105263158 -s 7 -d 8 -p cbr -e 210 -c 0 -i 4 -a 0 -x {7.0 10.0 0 ------- null}
+ -t 0.00676842105263158 -s 8 -d 9 -p cbr -e 210 -c 0 -i 4 -a 0 -x {7.0 10.0 0 ------- null}
- -t 0.00676842105263158 -s 8 -d 9 -p cbr -e 210 -c 0 -i 4 -a 0 -x {7.0 10.0 0 ------- null}
h -t 0.00676842105263158 -s 8 -d 9 -p cbr -e 210 -c 0 -i 4 -a 0 -x {7.0 10.0 -1 ------- null}
r -t 0.00676842105263158 -s 20 -d 24 -p cbr -e 210 -c 0 -i 5 -a 0 -x {20.0 31.0 0 ------- null}
+ -t 0.00676842105263158 -s 24 -d 18 -p cbr -e 210 -c 0 -i 5 -a 0 -x {20.0 31.0 0 ------- null}
- -t 0.00676842105263158 -s 24 -d 18 -p cbr -e 210 -c 0 -i 5 -a 0 -x {20.0 31.0 0 ------- null}
h -t 0.00676842105263158 -s 24 -d 18 -p cbr -e 210 -c 0 -i 5 -a 0 -x {20.0 31.0 -1 ------- null}
r -t 0.00676842105263158 -s 23 -d 26 -p cbr -e 210 -c 0 -i 7 -a 0 -x {23.0 31.0 0 ------- null}
+ -t 0.00676842105263158 -s 26 -d 27 -p cbr -e 210 -c 0 -i 7 -a 0 -x {23.0 31.0 0 ------- null}
- -t 0.00676842105263158 -s 26 -d 27 -p cbr -e 210 -c 0 -i 7 -a 0 -x {23.0 31.0 0 ------- null}
h -t 0.00676842105263158 -s 26 -d 27 -p cbr -e 210 -c 0 -i 7 -a 0 -x {23.0 31.0 -1 ------- null}
r -t 0.00676842105263158 -s 32 -d 5 -p cbr -e 210 -c 0 -i 8 -a 0 -x {32.0 29.0 0 ------- null}
+ -t 0.00676842105263158 -s 5 -d 9 -p cbr -e 210 -c 0 -i 8 -a 0 -x {32.0 29.0 0 ------- null}
r -t 0.00676842105263158 -s 4 -d 14 -p cbr -e 210 -c 0 -i 9 -a 0 -x {4.0 29.0 0 ------- null}
+ -t 0.00676842105263158 -s 14 -d 15 -p cbr -e 210 -c 0 -i 9 -a 0 -x {4.0 29.0 0 ------- null}
r -t 0.00676842105263158 -s 17 -d 19 -p cbr -e 210 -c 0 -i 10 -a 0 -x {17.0 29.0 0 ------- null}
+ -t 0.00676842105263158 -s 19 -d 12 -p cbr -e 210 -c 0 -i 10 -a 0 -x {17.0 29.0 0 ------- null}
- -t 0.00676842105263158 -s 19 -d 12 -p cbr -e 210 -c 0 -i 10 -a 0 -x {17.0 29.0 0 ------- null}
h -t 0.00676842105263158 -s 19 -d 12 -p cbr -e 210 -c 0 -i 10 -a 0 -x {17.0 29.0 -1 ------- null}
r -t 0.00676842105263158 -s 22 -d 25 -p cbr -e 210 -c 0 -i 11 -a 0 -x {22.0 29.0 0 ------- null}
+ -t 0.00676842105263158 -s 25 -d 18 -p cbr -e 210 -c 0 -i 11 -a 0 -x {22.0 29.0 0 ------- null}
- -t 0.00760842105263158 -s 25 -d 18 -p cbr -e 210 -c 0 -i 11 -a 0 -x {22.0 29.0 0 ------- null}
h -t 0.00760842105263158 -s 25 -d 18 -p cbr -e 210 -c 0 -i 11 -a 0 -x {22.0 29.0 -1 ------- null}
- -t 0.00853684210526316 -s 5 -d 9 -p cbr -e 210 -c 0 -i 8 -a 0 -x {32.0 29.0 0 ------- null}
h -t 0.00853684210526316 -s 5 -d 9 -p cbr -e 210 -c 0 -i 8 -a 0 -x {32.0 29.0 -1 ------- null}
- -t 0.00853684210526316 -s 14 -d 15 -p cbr -e 210 -c 0 -i 9 -a 0 -x {4.0 29.0 0 ------- null}
h -t 0.00853684210526316 -s 14 -d 15 -p cbr -e 210 -c 0 -i 9 -a 0 -x {4.0 29.0 -1 ------- null}
r -t 0.0092 -s 21 -d 25 -p cbr -e 210 -c 0 -i 18 -a 0 -x {21.0 31.0 1 ------- null}
+ -t 0.0092 -s 25 -d 18 -p cbr -e 210 -c 0 -i 18 -a 0 -x {21.0 31.0 1 ------- null}
- -t 0.00937684210526316 -s 25 -d 18 -p cbr -e 210 -c 0 -i 18 -a 0 -x {21.0 31.0 1 ------- null}
h -t 0.00937684210526316 -s 25 -d 18 -p cbr -e 210 -c 0 -i 18 -a 0 -x {21.0 31.0 -1 ------- null}
+ -t 0.01008 -s 1 -d 5 -p cbr -e 210 -c 0 -i 28 -a 0 -x {1.0 30.0 3 ------- null}
- -t 0.01008 -s 1 -d 5 -p cbr -e 210 -c 0 -i 28 -a 0 -x {1.0 30.0 3 ------- null}
h -t 0.01008 -s 1 -d 5 -p cbr -e 210 -c 0 -i 28 -a 0 -x {1.0 30.0 -1 ------- null}
+ -t 0.01008 -s 2 -d 13 -p cbr -e 210 -c 0 -i 29 -a 0 -x {2.0 10.0 3 ------- null}
- -t 0.01008 -s 2 -d 13 -p cbr -e 210 -c 0 -i 29 -a 0 -x {2.0 10.0 3 ------- null}
h -t 0.01008 -s 2 -d 13 -p cbr -e 210 -c 0 -i 29 -a 0 -x {2.0 10.0 -1 ------- null}
+ -t 0.01008 -s 0 -d 6 -p cbr -e 210 -c 1 -i 30 -a 1 -x {0.0 30.0 3 ------- null}
- -t 0.01008 -s 0 -d 6 -p cbr -e 210 -c 1 -i 30 -a 1 -x {0.0 30.0 3 ------- null}
h -t 0.01008 -s 0 -d 6 -p cbr -e 210 -c 1 -i 30 -a 1 -x {0.0 30.0 -1 ------- null}
+ -t 0.01008 -s 3 -d 14 -p cbr -e 210 -c 0 -i 31 -a 0 -x {3.0 10.0 3 ------- null}
- -t 0.01008 -s 3 -d 14 -p cbr -e 210 -c 0 -i 31 -a 0 -x {3.0 10.0 3 ------- null}
h -t 0.01008 -s 3 -d 14 -p cbr -e 210 -c 0 -i 31 -a 0 -x {3.0 10.0 -1 ------- null}
+ -t 0.01008 -s 7 -d 8 -p cbr -e 210 -c 0 -i 32 -a 0 -x {7.0 10.0 3 ------- null}
- -t 0.01008 -s 7 -d 8 -p cbr -e 210 -c 0 -i 32 -a 0 -x {7.0 10.0 3 ------- null}
h -t 0.01008 -s 7 -d 8 -p cbr -e 210 -c 0 -i 32 -a 0 -x {7.0 10.0 -1 ------- null}
+ -t 0.01008 -s 20 -d 24 -p cbr -e 210 -c 0 -i 33 -a 0 -x {20.0 31.0 3 ------- null}
- -t 0.01008 -s 20 -d 24 -p cbr -e 210 -c 0 -i 33 -a 0 -x {20.0 31.0 3 ------- null}
h -t 0.01008 -s 20 -d 24 -p cbr -e 210 -c 0 -i 33 -a 0 -x {20.0 31.0 -1 ------- null}
+ -t 0.01008 -s 21 -d 25 -p cbr -e 210 -c 0 -i 34 -a 0 -x {21.0 31.0 3 ------- null}
- -t 0.01008 -s 21 -d 25 -p cbr -e 210 -c 0 -i 34 -a 0 -x {21.0 31.0 3 ------- null}
h -t 0.01008 -s 21 -d 25 -p cbr -e 210 -c 0 -i 34 -a 0 -x {21.0 31.0 -1 ------- null}
+ -t 0.01008 -s 23 -d 26 -p cbr -e 210 -c 0 -i 35 -a 0 -x {23.0 31.0 3 ------- null}
- -t 0.01008 -s 23 -d 26 -p cbr -e 210 -c 0 -i 35 -a 0 -x {23.0 31.0 3 ------- null}
h -t 0.01008 -s 23 -d 26 -p cbr -e 210 -c 0 -i 35 -a 0 -x {23.0 31.0 -1 ------- null}
r -t 0.0101284210526316 -s 1 -d 5 -p cbr -e 210 -c 0 -i 12 -a 0 -x {1.0 30.0 1 ------- null}
+ -t 0.0101284210526316 -s 5 -d 9 -p cbr -e 210 -c 0 -i 12 -a 0 -x {1.0 30.0 1 ------- null}
r -t 0.0101284210526316 -s 2 -d 13 -p cbr -e 210 -c 0 -i 13 -a 0 -x {2.0 10.0 1 ------- null}
+ -t 0.0101284210526316 -s 13 -d 14 -p cbr -e 210 -c 0 -i 13 -a 0 -x {2.0 10.0 1 ------- null}
- -t 0.0101284210526316 -s 13 -d 14 -p cbr -e 210 -c 0 -i 13 -a 0 -x {2.0 10.0 1 ------- null}
h -t 0.0101284210526316 -s 13 -d 14 -p cbr -e 210 -c 0 -i 13 -a 0 -x {2.0 10.0 -1 ------- null}
r -t 0.0101284210526316 -s 0 -d 6 -p cbr -e 210 -c 1 -i 14 -a 1 -x {0.0 30.0 1 ------- null}
+ -t 0.0101284210526316 -s 6 -d 9 -p cbr -e 210 -c 1 -i 14 -a 1 -x {0.0 30.0 1 ------- null}
- -t 0.0101284210526316 -s 6 -d 9 -p cbr -e 210 -c 1 -i 14 -a 1 -x {0.0 30.0 1 ------- null}
h -t 0.0101284210526316 -s 6 -d 9 -p cbr -e 210 -c 1 -i 14 -a 1 -x {0.0 30.0 -1 ------- null}
r -t 0.0101284210526316 -s 3 -d 14 -p cbr -e 210 -c 0 -i 15 -a 0 -x {3.0 10.0 1 ------- null}
+ -t 0.0101284210526316 -s 14 -d 15 -p cbr -e 210 -c 0 -i 15 -a 0 -x {3.0 10.0 1 ------- null}
r -t 0.0101284210526316 -s 7 -d 8 -p cbr -e 210 -c 0 -i 16 -a 0 -x {7.0 10.0 1 ------- null}
+ -t 0.0101284210526316 -s 8 -d 9 -p cbr -e 210 -c 0 -i 16 -a 0 -x {7.0 10.0 1 ------- null}
- -t 0.0101284210526316 -s 8 -d 9 -p cbr -e 210 -c 0 -i 16 -a 0 -x {7.0 10.0 1 ------- null}
h -t 0.0101284210526316 -s 8 -d 9 -p cbr -e 210 -c 0 -i 16 -a 0 -x {7.0 10.0 -1 ------- null}
r -t 0.0101284210526316 -s 20 -d 24 -p cbr -e 210 -c 0 -i 17 -a 0 -x {20.0 31.0 1 ------- null}
+ -t 0.0101284210526316 -s 24 -d 18 -p cbr -e 210 -c 0 -i 17 -a 0 -x {20.0 31.0 1 ------- null}
- -t 0.0101284210526316 -s 24 -d 18 -p cbr -e 210 -c 0 -i 17 -a 0 -x {20.0 31.0 1 ------- null}
h -t 0.0101284210526316 -s 24 -d 18 -p cbr -e 210 -c 0 -i 17 -a 0 -x {20.0 31.0 -1 ------- null}
r -t 0.0101284210526316 -s 23 -d 26 -p cbr -e 210 -c 0 -i 19 -a 0 -x {23.0 31.0 1 ------- null}
+ -t 0.0101284210526316 -s 26 -d 27 -p cbr -e 210 -c 0 -i 19 -a 0 -x {23.0 31.0 1 ------- null}
- -t 0.0101284210526316 -s 26 -d 27 -p cbr -e 210 -c 0 -i 19 -a 0 -x {23.0 31.0 1 ------- null}
h -t 0.0101284210526316 -s 26 -d 27 -p cbr -e 210 -c 0 -i 19 -a 0 -x {23.0 31.0 -1 ------- null}
- -t 0.0103052631578947 -s 5 -d 9 -p cbr -e 210 -c 0 -i 12 -a 0 -x {1.0 30.0 1 ------- null}
h -t 0.0103052631578947 -s 5 -d 9 -p cbr -e 210 -c 0 -i 12 -a 0 -x {1.0 30.0 -1 ------- null}
- -t 0.0103052631578947 -s 14 -d 15 -p cbr -e 210 -c 0 -i 15 -a 0 -x {3.0 10.0 1 ------- null}
h -t 0.0103052631578947 -s 14 -d 15 -p cbr -e 210 -c 0 -i 15 -a 0 -x {3.0 10.0 -1 ------- null}
r -t 0.01256 -s 21 -d 25 -p cbr -e 210 -c 0 -i 26 -a 0 -x {21.0 31.0 2 ------- null}
+ -t 0.01256 -s 25 -d 18 -p cbr -e 210 -c 0 -i 26 -a 0 -x {21.0 31.0 2 ------- null}
- -t 0.01256 -s 25 -d 18 -p cbr -e 210 -c 0 -i 26 -a 0 -x {21.0 31.0 2 ------- null}
h -t 0.01256 -s 25 -d 18 -p cbr -e 210 -c 0 -i 26 -a 0 -x {21.0 31.0 -1 ------- null}
r -t 0.0126084210526316 -s 25 -d 18 -p cbr -e 210 -c 0 -i 6 -a 0 -x {21.0 31.0 0 ------- null}
+ -t 0.0126084210526316 -s 18 -d 28 -p cbr -e 210 -c 0 -i 6 -a 0 -x {21.0 31.0 0 ------- null}
- -t 0.0126084210526316 -s 18 -d 28 -p cbr -e 210 -c 0 -i 6 -a 0 -x {21.0 31.0 0 ------- null}
h -t 0.0126084210526316 -s 18 -d 28 -p cbr -e 210 -c 0 -i 6 -a 0 -x {21.0 31.0 -1 ------- null}
+ -t 0.01344 -s 1 -d 5 -p cbr -e 210 -c 0 -i 36 -a 0 -x {1.0 30.0 4 ------- null}
- -t 0.01344 -s 1 -d 5 -p cbr -e 210 -c 0 -i 36 -a 0 -x {1.0 30.0 4 ------- null}
h -t 0.01344 -s 1 -d 5 -p cbr -e 210 -c 0 -i 36 -a 0 -x {1.0 30.0 -1 ------- null}
+ -t 0.01344 -s 2 -d 13 -p cbr -e 210 -c 0 -i 37 -a 0 -x {2.0 10.0 4 ------- null}
- -t 0.01344 -s 2 -d 13 -p cbr -e 210 -c 0 -i 37 -a 0 -x {2.0 10.0 4 ------- null}
h -t 0.01344 -s 2 -d 13 -p cbr -e 210 -c 0 -i 37 -a 0 -x {2.0 10.0 -1 ------- null}
+ -t 0.01344 -s 0 -d 6 -p cbr -e 210 -c 1 -i 38 -a 1 -x {0.0 30.0 4 ------- null}
- -t 0.01344 -s 0 -d 6 -p cbr -e 210 -c 1 -i 38 -a 1 -x {0.0 30.0 4 ------- null}
h -t 0.01344 -s 0 -d 6 -p cbr -e 210 -c 1 -i 38 -a 1 -x {0.0 30.0 -1 ------- null}
+ -t 0.01344 -s 3 -d 14 -p cbr -e 210 -c 0 -i 39 -a 0 -x {3.0 10.0 4 ------- null}
- -t 0.01344 -s 3 -d 14 -p cbr -e 210 -c 0 -i 39 -a 0 -x {3.0 10.0 4 ------- null}
h -t 0.01344 -s 3 -d 14 -p cbr -e 210 -c 0 -i 39 -a 0 -x {3.0 10.0 -1 ------- null}
+ -t 0.01344 -s 7 -d 8 -p cbr -e 210 -c 0 -i 40 -a 0 -x {7.0 10.0 4 ------- null}
- -t 0.01344 -s 7 -d 8 -p cbr -e 210 -c 0 -i 40 -a 0 -x {7.0 10.0 4 ------- null}
h -t 0.01344 -s 7 -d 8 -p cbr -e 210 -c 0 -i 40 -a 0 -x {7.0 10.0 -1 ------- null}
+ -t 0.01344 -s 20 -d 24 -p cbr -e 210 -c 0 -i 41 -a 0 -x {20.0 31.0 4 ------- null}
- -t 0.01344 -s 20 -d 24 -p cbr -e 210 -c 0 -i 41 -a 0 -x {20.0 31.0 4 ------- null}
h -t 0.01344 -s 20 -d 24 -p cbr -e 210 -c 0 -i 41 -a 0 -x {20.0 31.0 -1 ------- null}
+ -t 0.01344 -s 21 -d 25 -p cbr -e 210 -c 0 -i 42 -a 0 -x {21.0 31.0 4 ------- null}
- -t 0.01344 -s 21 -d 25 -p cbr -e 210 -c 0 -i 42 -a 0 -x {21.0 31.0 4 ------- null}
h -t 0.01344 -s 21 -d 25 -p cbr -e 210 -c 0 -i 42 -a 0 -x {21.0 31.0 -1 ------- null}
+ -t 0.01344 -s 23 -d 26 -p cbr -e 210 -c 0 -i 43 -a 0 -x {23.0 31.0 4 ------- null}
- -t 0.01344 -s 23 -d 26 -p cbr -e 210 -c 0 -i 43 -a 0 -x {23.0 31.0 4 ------- null}
h -t 0.01344 -s 23 -d 26 -p cbr -e 210 -c 0 -i 43 -a 0 -x {23.0 31.0 -1 ------- null}
r -t 0.0134884210526316 -s 1 -d 5 -p cbr -e 210 -c 0 -i 20 -a 0 -x {1.0 30.0 2 ------- null}
+ -t 0.0134884210526316 -s 5 -d 9 -p cbr -e 210 -c 0 -i 20 -a 0 -x {1.0 30.0 2 ------- null}
- -t 0.0134884210526316 -s 5 -d 9 -p cbr -e 210 -c 0 -i 20 -a 0 -x {1.0 30.0 2 ------- null}
h -t 0.0134884210526316 -s 5 -d 9 -p cbr -e 210 -c 0 -i 20 -a 0 -x {1.0 30.0 -1 ------- null}
r -t 0.0134884210526316 -s 2 -d 13 -p cbr -e 210 -c 0 -i 21 -a 0 -x {2.0 10.0 2 ------- null}
+ -t 0.0134884210526316 -s 13 -d 14 -p cbr -e 210 -c 0 -i 21 -a 0 -x {2.0 10.0 2 ------- null}
- -t 0.0134884210526316 -s 13 -d 14 -p cbr -e 210 -c 0 -i 21 -a 0 -x {2.0 10.0 2 ------- null}
h -t 0.0134884210526316 -s 13 -d 14 -p cbr -e 210 -c 0 -i 21 -a 0 -x {2.0 10.0 -1 ------- null}
r -t 0.0134884210526316 -s 0 -d 6 -p cbr -e 210 -c 1 -i 22 -a 1 -x {0.0 30.0 2 ------- null}
+ -t 0.0134884210526316 -s 6 -d 9 -p cbr -e 210 -c 1 -i 22 -a 1 -x {0.0 30.0 2 ------- null}
- -t 0.0134884210526316 -s 6 -d 9 -p cbr -e 210 -c 1 -i 22 -a 1 -x {0.0 30.0 2 ------- null}
h -t 0.0134884210526316 -s 6 -d 9 -p cbr -e 210 -c 1 -i 22 -a 1 -x {0.0 30.0 -1 ------- null}
r -t 0.0134884210526316 -s 3 -d 14 -p cbr -e 210 -c 0 -i 23 -a 0 -x {3.0 10.0 2 ------- null}
+ -t 0.0134884210526316 -s 14 -d 15 -p cbr -e 210 -c 0 -i 23 -a 0 -x {3.0 10.0 2 ------- null}
- -t 0.0134884210526316 -s 14 -d 15 -p cbr -e 210 -c 0 -i 23 -a 0 -x {3.0 10.0 2 ------- null}
h -t 0.0134884210526316 -s 14 -d 15 -p cbr -e 210 -c 0 -i 23 -a 0 -x {3.0 10.0 -1 ------- null}
r -t 0.0134884210526316 -s 7 -d 8 -p cbr -e 210 -c 0 -i 24 -a 0 -x {7.0 10.0 2 ------- null}
+ -t 0.0134884210526316 -s 8 -d 9 -p cbr -e 210 -c 0 -i 24 -a 0 -x {7.0 10.0 2 ------- null}
- -t 0.0134884210526316 -s 8 -d 9 -p cbr -e 210 -c 0 -i 24 -a 0 -x {7.0 10.0 2 ------- null}
h -t 0.0134884210526316 -s 8 -d 9 -p cbr -e 210 -c 0 -i 24 -a 0 -x {7.0 10.0 -1 ------- null}
r -t 0.0134884210526316 -s 20 -d 24 -p cbr -e 210 -c 0 -i 25 -a 0 -x {20.0 31.0 2 ------- null}
+ -t 0.0134884210526316 -s 24 -d 18 -p cbr -e 210 -c 0 -i 25 -a 0 -x {20.0 31.0 2 ------- null}
- -t 0.0134884210526316 -s 24 -d 18 -p cbr -e 210 -c 0 -i 25 -a 0 -x {20.0 31.0 2 ------- null}
h -t 0.0134884210526316 -s 24 -d 18 -p cbr -e 210 -c 0 -i 25 -a 0 -x {20.0 31.0 -1 ------- null}
r -t 0.0134884210526316 -s 23 -d 26 -p cbr -e 210 -c 0 -i 27 -a 0 -x {23.0 31.0 2 ------- null}
+ -t 0.0134884210526316 -s 26 -d 27 -p cbr -e 210 -c 0 -i 27 -a 0 -x {23.0 31.0 2 ------- null}
- -t 0.0134884210526316 -s 26 -d 27 -p cbr -e 210 -c 0 -i 27 -a 0 -x {23.0 31.0 2 ------- null}
h -t 0.0134884210526316 -s 26 -d 27 -p cbr -e 210 -c 0 -i 27 -a 0 -x {23.0 31.0 -1 ------- null}
r -t 0.0135368421052632 -s 5 -d 9 -p cbr -e 210 -c 0 -i 0 -a 0 -x {1.0 30.0 0 ------- null}
+ -t 0.0135368421052632 -s 9 -d 28 -p cbr -e 210 -c 0 -i 0 -a 0 -x {1.0 30.0 0 ------- null}
- -t 0.0135368421052632 -s 9 -d 28 -p cbr -e 210 -c 0 -i 0 -a 0 -x {1.0 30.0 0 ------- null}
h -t 0.0135368421052632 -s 9 -d 28 -p cbr -e 210 -c 0 -i 0 -a 0 -x {1.0 30.0 -1 ------- null}
r -t 0.0135368421052632 -s 13 -d 14 -p cbr -e 210 -c 0 -i 1 -a 0 -x {2.0 10.0 0 ------- null}
+ -t 0.0135368421052632 -s 14 -d 15 -p cbr -e 210 -c 0 -i 1 -a 0 -x {2.0 10.0 0 ------- null}
r -t 0.0135368421052632 -s 6 -d 9 -p cbr -e 210 -c 1 -i 2 -a 1 -x {0.0 30.0 0 ------- null}
+ -t 0.0135368421052632 -s 9 -d 28 -p cbr -e 210 -c 1 -i 2 -a 1 -x {0.0 30.0 0 ------- null}
r -t 0.0135368421052632 -s 14 -d 15 -p cbr -e 210 -c 0 -i 3 -a 0 -x {3.0 10.0 0 ------- null}
+ -t 0.0135368421052632 -s 15 -d 12 -p cbr -e 210 -c 0 -i 3 -a 0 -x {3.0 10.0 0 ------- null}
- -t 0.0135368421052632 -s 15 -d 12 -p cbr -e 210 -c 0 -i 3 -a 0 -x {3.0 10.0 0 ------- null}
h -t 0.0135368421052632 -s 15 -d 12 -p cbr -e 210 -c 0 -i 3 -a 0 -x {3.0 10.0 -1 ------- null}
r -t 0.0135368421052632 -s 8 -d 9 -p cbr -e 210 -c 0 -i 4 -a 0 -x {7.0 10.0 0 ------- null}
+ -t 0.0135368421052632 -s 9 -d 11 -p cbr -e 210 -c 0 -i 4 -a 0 -x {7.0 10.0 0 ------- null}
- -t 0.0135368421052632 -s 9 -d 11 -p cbr -e 210 -c 0 -i 4 -a 0 -x {7.0 10.0 0 ------- null}
h -t 0.0135368421052632 -s 9 -d 11 -p cbr -e 210 -c 0 -i 4 -a 0 -x {7.0 10.0 -1 ------- null}
r -t 0.0135368421052632 -s 24 -d 18 -p cbr -e 210 -c 0 -i 5 -a 0 -x {20.0 31.0 0 ------- null}
+ -t 0.0135368421052632 -s 18 -d 28 -p cbr -e 210 -c 0 -i 5 -a 0 -x {20.0 31.0 0 ------- null}
r -t 0.0135368421052632 -s 26 -d 27 -p cbr -e 210 -c 0 -i 7 -a 0 -x {23.0 31.0 0 ------- null}
+ -t 0.0135368421052632 -s 27 -d 18 -p cbr -e 210 -c 0 -i 7 -a 0 -x {23.0 31.0 0 ------- null}
- -t 0.0135368421052632 -s 27 -d 18 -p cbr -e 210 -c 0 -i 7 -a 0 -x {23.0 31.0 0 ------- null}
h -t 0.0135368421052632 -s 27 -d 18 -p cbr -e 210 -c 0 -i 7 -a 0 -x {23.0 31.0 -1 ------- null}
r -t 0.0135368421052632 -s 19 -d 12 -p cbr -e 210 -c 0 -i 10 -a 0 -x {17.0 29.0 0 ------- null}
+ -t 0.0135368421052632 -s 12 -d 11 -p cbr -e 210 -c 0 -i 10 -a 0 -x {17.0 29.0 0 ------- null}
- -t 0.0135368421052632 -s 12 -d 11 -p cbr -e 210 -c 0 -i 10 -a 0 -x {17.0 29.0 0 ------- null}
h -t 0.0135368421052632 -s 12 -d 11 -p cbr -e 210 -c 0 -i 10 -a 0 -x {17.0 29.0 -1 ------- null}
r -t 0.0143768421052632 -s 25 -d 18 -p cbr -e 210 -c 0 -i 11 -a 0 -x {22.0 29.0 0 ------- null}
+ -t 0.0143768421052632 -s 18 -d 28 -p cbr -e 210 -c 0 -i 11 -a 0 -x {22.0 29.0 0 ------- null}
- -t 0.0143768421052632 -s 18 -d 28 -p cbr -e 210 -c 0 -i 5 -a 0 -x {20.0 31.0 0 ------- null}
h -t 0.0143768421052632 -s 18 -d 28 -p cbr -e 210 -c 0 -i 5 -a 0 -x {20.0 31.0 -1 ------- null}
- -t 0.0152568421052632 -s 14 -d 15 -p cbr -e 210 -c 0 -i 1 -a 0 -x {2.0 10.0 0 ------- null}